
***************************************************************
*                 Welcome to use GPUMD                        *
*     (Graphics Processing Units Molecular Dynamics)          *
*                     version 5.5                             *
*              This is the gpumd executable                   *
***************************************************************


---------------------------------------------------------------
Compiling options:
---------------------------------------------------------------

DEBUG is off: Use different PRNG seeds for different runs.

---------------------------------------------------------------
GPU information:
---------------------------------------------------------------

number of GPUs = 1
Device id:                   0
    Device name:             NVIDIA A100-SXM4-40GB MIG 3g.20gb
    Compute capability:      8.0
    Amount of global memory: 19.5 GB
    Number of SMs:           42

---------------------------------------------------------------
Started running GPUMD.
---------------------------------------------------------------


---------------------------------------------------------------
Started initializing positions and related parameters.
---------------------------------------------------------------

Number of atoms is 187500.
Use periodic boundary conditions along x.
Use periodic boundary conditions along y.
Use periodic boundary conditions along z.
Box matrix h = [a, b, c] is
    1.5992500000e+02    0.0000000000e+00    0.0000000000e+00
    0.0000000000e+00    1.5992500000e+02    0.0000000000e+00
    0.0000000000e+00    0.0000000000e+00    1.5992500000e+02
Inverse box matrix g = inv(h) is
    6.2529310614e-03    0.0000000000e+00    0.0000000000e+00
    0.0000000000e+00    6.2529310614e-03    0.0000000000e+00
    0.0000000000e+00    0.0000000000e+00    6.2529310614e-03
Do not specify initial velocities here.
Have no grouping method.
There are 5 atom types.
    15625 atoms of type 0.
    31250 atoms of type 1.
    78125 atoms of type 2.
    15625 atoms of type 3.
    46875 atoms of type 4.
Initialized velocities with default T = 300 K.

---------------------------------------------------------------
Finished initializing positions and related parameters.
---------------------------------------------------------------


---------------------------------------------------------------
Started executing the commands in run.in.
