
***************************************************************
*                 Welcome to use GPUMD                        *
*     (Graphics Processing Units Molecular Dynamics)          *
*                     version 5.5                             *
*              This is the gpumd executable                   *
***************************************************************


---------------------------------------------------------------
Compiling options:
---------------------------------------------------------------

DEBUG is off: Use different PRNG seeds for different runs.

---------------------------------------------------------------
GPU information:
---------------------------------------------------------------

number of GPUs = 1
Device id:                   0
    Device name:             NVIDIA A100-SXM4-40GB MIG 3g.20gb
    Compute capability:      8.0
    Amount of global memory: 19.5 GB
    Number of SMs:           42

---------------------------------------------------------------
Started running GPUMD.
---------------------------------------------------------------


---------------------------------------------------------------
Started initializing positions and related parameters.
Input Error:
    File:       model/read_xyz.cu
    Line:       346
    Error text: number of columns does not match properties.

---------------------------------------------------------------

Number of atoms is 96000.
Use periodic boundary conditions along x.
Use periodic boundary conditions along y.
Use periodic boundary conditions along z.
Box matrix h = [a, b, c] is
    1.2733700000e+02    0.0000000000e+00    0.0000000000e+00
    0.0000000000e+00    1.2733700000e+02    0.0000000000e+00
    0.0000000000e+00    0.0000000000e+00    1.2733700000e+02
Inverse box matrix g = inv(h) is
    7.8531770028e-03    0.0000000000e+00    0.0000000000e+00
    0.0000000000e+00    7.8531770028e-03    0.0000000000e+00
    0.0000000000e+00    0.0000000000e+00    7.8531770028e-03
Specify initial velocities here.
Have no grouping method.
