
***************************************************************
*                 Welcome to use GPUMD                        *
*     (Graphics Processing Units Molecular Dynamics)          *
*                     version 5.5                             *
*              This is the gpumd executable                   *
***************************************************************


---------------------------------------------------------------
Compiling options:
---------------------------------------------------------------

DEBUG is off: Use different PRNG seeds for different runs.

---------------------------------------------------------------
GPU information:
---------------------------------------------------------------

number of GPUs = 1
Device id:                   0
    Device name:             NVIDIA A100-SXM4-40GB MIG 3g.20gb
    Compute capability:      8.0
    Amount of global memory: 19.5 GB
    Number of SMs:           42

---------------------------------------------------------------
Started running GPUMD.
---------------------------------------------------------------


---------------------------------------------------------------
Started initializing positions and related parameters.
---------------------------------------------------------------

Number of atoms is 187500.
Use periodic boundary conditions along x.
Use periodic boundary conditions along y.
Use periodic boundary conditions along z.
Box matrix h = [a, b, c] is
    1.5992500000e+02    0.0000000000e+00    0.0000000000e+00
    0.0000000000e+00    1.5992500000e+02    0.0000000000e+00
    0.0000000000e+00    0.0000000000e+00    1.5992500000e+02
Inverse box matrix g = inv(h) is
    6.2529310614e-03    0.0000000000e+00    0.0000000000e+00
    0.0000000000e+00    6.2529310614e-03    0.0000000000e+00
    0.0000000000e+00    0.0000000000e+00    6.2529310614e-03
Do not specify initial velocities here.
Have no grouping method.
There are 5 atom types.
    15625 atoms of type 0.
    31250 atoms of type 1.
    78125 atoms of type 2.
    15625 atoms of type 3.
    46875 atoms of type 4.
Initialized velocities with default T = 300 K.

---------------------------------------------------------------
Finished initializing positions and related parameters.
---------------------------------------------------------------


---------------------------------------------------------------
Started executing the commands in run.in.
CUDA Error:
    File:       integrate/ensemble_ber.cu
    Line:       142
    Error code: 700
    Error text: an illegal memory access was encountered
---------------------------------------------------------------

Use the NEP4 potential with 5 atom types.
    type 0 (C with Z = 6).
    type 1 (N with Z = 7).
    type 2 (H with Z = 1).
    type 3 (Pb with Z = 82).
    type 4 (I with Z = 53).
    radial cutoff = 8 A.
    angular cutoff = 4 A.
    MN_radial = 113.
    enlarged MN_radial = 142.
    enlarged MN_angular = 23.
    n_max_radial = 4.
    n_max_angular = 4.
    basis_size_radial = 8.
    basis_size_angular = 8.
    l_max_3body = 4.
    has_q_222 = 2.
    has_q_1111 = 0.
    has_q_112 = 0.
    has_q_123 = 0.
    has_q_233 = 0.
    has_q_134 = 0.
    ANN = 30-30-1.
    number of neural network parameters = 4801.
    number of descriptor parameters = 2250.
    total number of parameters = 7051.
Initialized velocities with input T = 300 K.
Use NPT ensemble for this run.
    choose the Berendsen method.
    initial temperature is 300 K.
    final temperature is 300 K.
    tau_T is 1000 time_step
    isotropic pressure is 0 GPa.
    bulk modulus is 10 GPa.
    tau_p is 500 time_step.
Time step for this run is 1 fs.
Dump thermo every 1000 steps.
Dump position.
    every 1000 steps.
Run 1000000 steps.
